 variables = x , y 
 zone N=6,E=4, F= FEPOINT, ET= TRIANGLE
    0.000000E+00    0.000000E+00
    5.000000E-01    0.000000E+00
        1.000000    0.000000E+00
    0.000000E+00        1.000000
    5.000000E-01        1.000000
        1.000000        1.000000
           1           2           5
           1           5           4
           2           3           6
           2           6           5
